Title: * spicenetlist
Date: Sat Mar 14 01:54:46  2020
Plotname: Operating Point
Flags: real
No. Variables: 3
No. Points: 1
Variables:
	0	n_1	voltage
	1	n_3	voltage
	2	i(v_v2)	current
Values:
 0	0.000000000000000e+000
	0.000000000000000e+000
	0.000000000000000e+000

